<?xml version="1.0" encoding="UTF-8"?>

<!-- generated on Sun 01 Jul 2018 08:03:14 PM -03 by SUMO gui Version 0.32.0
<?xml version="1.0" encoding="UTF-8"?>

<configuration xmlns:xsi="http://www.w3.org/2001/XMLSchema-instance" xsi:noNamespaceSchemaLocation="http://sumo.dlr.de/xsd/sumoConfiguration.xsd">

    <input>
        <net-file value="ufma.net.xml"/>
        <route-files value="ufma.rou.xml"/>
        <additional-files value="ufma.add.xml"/>
    </input>

    <output>
        <fcd-output value="ufmaTracer2018-07-01%2020:03:12.xml"/>
        <tripinfo-output value="tripinfo.xml"/>
    </output>

    <traci_server>
        <remote-port value="53275"/>
    </traci_server>

</configuration>
-->

<tripinfos xmlns:xsi="http://www.w3.org/2001/XMLSchema-instance" xsi:noNamespaceSchemaLocation="http://sumo.dlr.de/xsd/tripinfo_file.xsd">
</tripinfos>
